<?xml version="1.0"?>
<VTKFile type="UnstructuredGrid"  version="0.1"  >
<UnstructuredGrid>
<Piece  NumberOfPoints="258" NumberOfCells="256">
<Points>
<DataArray  type="Float64"  NumberOfComponents="3"  format="ascii">0 1e-05 0  0 0 0  0.001 0 0  0.001 1e-05 0  0.0005 0 0  0.0005 1e-05 0  0.00025 0 0  0.00025 1e-05 0  0.00075 1e-05 0  0.00075 0 0  0.000375 1e-05 0  0.000375 0 0  0.000125 1e-05 0  0.000125 0 0  0.000625 0 0  0.000625 1e-05 0  0.000875 0 0  0.000875 1e-05 0  0.0006875 1e-05 0  0.0006875 0 0  0.0005625000000000001 1e-05 0  0.0005625000000000001 0 0  6.25e-05 0 0  6.25e-05 1e-05 0  0.0001875 0 0  0.0001875 1e-05 0  0.0003125 0 0  0.0003125 1e-05 0  0.0004375 0 0  0.0004375 1e-05 0  0.0008125000000000001 1e-05 0  0.0008125000000000001 0 0  0.0009375 1e-05 0  0.0009375 0 0  0.00071875 0 0  0.00071875 1e-05 0  0.00053125 0 0  0.00053125 1e-05 0  0.00078125 0 0  0.00078125 1e-05 0  0.00096875 0 0  0.00096875 1e-05 0  0.00046875 1e-05 0  0.00046875 0 0  0.00040625 1e-05 0  0.00040625 0 0  0.00034375 1e-05 0  0.00034375 0 0  0.00028125 1e-05 0  0.00028125 0 0  0.00021875 1e-05 0  0.00021875 0 0  0.00015625 1e-05 0  0.00015625 0 0  9.375e-05 1e-05 0  9.375e-05 0 0  3.125e-05 1e-05 0  3.125e-05 0 0  0.0009062499999999999 0 0  0.0009062499999999999 1e-05 0  0.0008437500000000001 1e-05 0  0.0008437500000000001 0 0  0.0005937500000000001 1e-05 0  0.0005937500000000001 0 0  0.0006562499999999999 0 0  0.0006562499999999999 1e-05 0  0.0007968750000000001 1e-05 0  0.0007968750000000001 0 0  0.000765625 0 0  0.000765625 1e-05 0  0.0005468750000000001 1e-05 0  0.0005468750000000001 0 0  0.000515625 0 0  0.000515625 1e-05 0  0.000484375 1e-05 0  0.000484375 0 0  0.000734375 1e-05 0  0.000734375 0 0  0.000703125 0 0  0.000703125 1e-05 0  0.0006718749999999999 1e-05 0  0.0006718749999999999 0 0  0.000921875 1e-05 0  0.000921875 0 0  0.000953125 0 0  0.000953125 1e-05 0  0.000984375 1e-05 0  0.000984375 0 0  0.000359375 1e-05 0  0.000359375 0 0  0.000390625 0 0  0.000390625 1e-05 0  0.000265625 0 0  0.000265625 1e-05 0  0.0008281250000000001 0 0  0.0008281250000000001 1e-05 0  0.0005781250000000001 0 0  0.0005781250000000001 1e-05 0  1.5625e-05 0 0  1.5625e-05 1e-05 0  4.6875e-05 0 0  4.6875e-05 1e-05 0  7.8125e-05 0 0  7.8125e-05 1e-05 0  0.000109375 0 0  0.000109375 1e-05 0  0.000140625 0 0  0.000140625 1e-05 0  0.000171875 0 0  0.000171875 1e-05 0  0.000203125 0 0  0.000203125 1e-05 0  0.000234375 0 0  0.000234375 1e-05 0  0.000296875 1e-05 0  0.000296875 0 0  0.000328125 0 0  0.000328125 1e-05 0  0.000421875 1e-05 0  0.000421875 0 0  0.000453125 0 0  0.000453125 1e-05 0  0.0006406249999999999 0 0  0.0006406249999999999 1e-05 0  0.0006093750000000001 1e-05 0  0.0006093750000000001 0 0  0.0008906249999999999 0 0  0.0008906249999999999 1e-05 0  0.0008593750000000001 1e-05 0  0.0008593750000000001 0 0  0.0001953125 0 0  0.0001953125 1e-05 0  0.0001796875 1e-05 0  0.0001796875 0 0  0.0001328125 0 0  0.0001328125 1e-05 0  0.0005859375000000001 1e-05 0  0.0005859375000000001 0 0  0.0005703125000000001 0 0  0.0005703125000000001 1e-05 0  0.0008359375000000001 1e-05 0  0.0008359375000000001 0 0  0.0008203125000000001 0 0  0.0008203125000000001 1e-05 0  0.0002734375 1e-05 0  0.0002734375 0 0  0.0002578125 0 0  0.0002578125 1e-05 0  0.0002421875 1e-05 0  0.0002421875 0 0  0.0003984375 1e-05 0  0.0003984375 0 0  0.0003828125 0 0  0.0003828125 1e-05 0  0.0003359375 1e-05 0  0.0003359375 0 0  0.0003515625 0 0  0.0003515625 1e-05 0  0.0003671875 1e-05 0  0.0003671875 0 0  0.0009609375 1e-05 0  0.0009609375 0 0  0.0009453125 0 0  0.0009453125 1e-05 0  0.0008984374999999999 1e-05 0  0.0008984374999999999 0 0  0.0009140624999999999 0 0  0.0009140624999999999 1e-05 0  0.0009296875 1e-05 0  0.0009296875 0 0  0.0004609375 1e-05 0  0.0004609375 0 0  0.0004765625 0 0  0.0004765625 1e-05 0  0.0004921875 1e-05 0  0.0004921875 0 0  0.0005078125 0 0  0.0005078125 1e-05 0  0.0005234375 1e-05 0  0.0005234375 0 0  0.0005390625 0 0  0.0005390625 1e-05 0  0.0005546875000000001 1e-05 0  0.0005546875000000001 0 0  0.0006484374999999999 1e-05 0  0.0006484374999999999 0 0  0.0006640624999999999 0 0  0.0006640624999999999 1e-05 0  0.0006796875 1e-05 0  0.0006796875 0 0  0.0006953125 0 0  0.0006953125 1e-05 0  0.0007109375 1e-05 0  0.0007109375 0 0  0.0007265625 0 0  0.0007265625 1e-05 0  0.0007421875 1e-05 0  0.0007421875 0 0  0.0007578125 0 0  0.0007578125 1e-05 0  0.0007734375 1e-05 0  0.0007734375 0 0  0.0007890625000000001 0 0  0.0007890625000000001 1e-05 0  0.0008046875000000001 1e-05 0  0.0008046875000000001 0 0  0.0009765625 0 0  0.0009765625 1e-05 0  0.0009921875 1e-05 0  0.0009921875 0 0  0.0002890625 0 0  0.0002890625 1e-05 0  0.0004140625 0 0  0.0004140625 1e-05 0  0.0006015625000000001 0 0  0.0006015625000000001 1e-05 0  0.0008515625000000001 0 0  0.0008515625000000001 1e-05 0  0.0001171875 1e-05 0  0.0001171875 0 0  0.0001015625 1e-05 0  0.0001015625 0 0  8.59375e-05 1e-05 0  8.59375e-05 0 0  7.031250000000001e-05 1e-05 0  7.031250000000001e-05 0 0  5.46875e-05 1e-05 0  5.46875e-05 0 0  3.90625e-05 1e-05 0  3.90625e-05 0 0  2.34375e-05 1e-05 0  2.34375e-05 0 0  7.8125e-06 1e-05 0  7.8125e-06 0 0  0.0002265625 0 0  0.0002265625 1e-05 0  0.0002109375 1e-05 0  0.0002109375 0 0  0.0001640625 0 0  0.0001640625 1e-05 0  0.0001484375 1e-05 0  0.0001484375 0 0  0.0004453125 0 0  0.0004453125 1e-05 0  0.0004296875000000001 1e-05 0  0.0004296875000000001 0 0  0.0003203125 0 0  0.0003203125 1e-05 0  0.0003046875000000001 1e-05 0  0.0003046875000000001 0 0  0.0008828124999999999 0 0  0.0008828124999999999 1e-05 0  0.0008671875000000001 1e-05 0  0.0008671875000000001 0 0  0.0006328124999999999 0 0  0.0006328124999999999 1e-05 0  0.0006171875000000001 1e-05 0  0.0006171875000000001 0 0  </DataArray>
</Points>
<Cells>
<DataArray  type="UInt32"  Name="connectivity"  format="ascii">14 256 257  16 252 253  18 190 191  15 254 255  5 176 177  26 248 249  11 158 159  28 244 245  4 174 175  8 198 199  32 162 163  17 250 251  9 196 197  21 182 183  31 204 205  2 208 209  29 242 243  10 152 153  27 246 247  7 146 147  50 234 235  25 130 131  52 238 239  12 134 135  33 168 169  30 142 143  20 138 139  19 188 189  39 202 203  38 200 201  37 180 181  36 178 179  42 172 173  35 194 195  34 192 193  65 186 187  59 166 167  40 160 161  41 206 207  46 156 157  45 150 151  49 144 145  61 140 141  63 136 137  98 232 233  57 230 231  100 228 229  22 226 227  102 224 225  55 222 223  104 220 221  13 218 219  53 240 241  24 132 133  51 236 237  6 148 149  48 210 211  47 154 155  44 212 213  43 170 171  64 184 185  62 214 215  58 164 165  60 216 217  24 25 130  110 130 131  110 111 131  24 25 132  109 132 133  108 109 133  12 13 134  106 134 135  106 107 135  62 63 136  97 136 137  96 97 137  20 21 138  96 138 139  96 97 139  60 61 140  95 140 141  94 95 141  30 31 142  94 142 143  94 95 143  48 49 144  93 144 145  92 93 145  6 7 146  92 146 147  92 93 147  6 7 148  113 148 149  112 113 149  44 45 150  91 150 151  90 91 151  10 11 152  90 152 153  90 91 153  46 47 154  117 154 155  116 117 155  46 47 156  89 156 157  88 89 157  10 11 158  88 158 159  88 89 159  40 41 160  85 160 161  84 85 161  32 33 162  84 162 163  84 85 163  58 59 164  127 164 165  126 127 165  58 59 166  83 166 167  82 83 167  32 33 168  82 168 169  82 83 169  42 43 170  121 170 171  120 121 171  42 43 172  75 172 173  74 75 173  4 5 174  74 174 175  74 75 175  4 5 176  72 176 177  72 73 177  36 37 178  73 178 179  72 73 179  36 37 180  71 180 181  70 71 181  20 21 182  70 182 183  70 71 183  64 65 184  123 184 185  122 123 185  64 65 186  81 186 187  80 81 187  18 19 188  80 188 189  80 81 189  18 19 190  78 190 191  78 79 191  34 35 192  79 192 193  78 79 193  34 35 194  77 194 195  76 77 195  8 9 196  76 196 197  76 77 197  8 9 198  68 198 199  68 69 199  38 39 200  69 200 201  68 69 201  38 39 202  67 202 203  66 67 203  30 31 204  66 204 205  66 67 205  40 41 206  87 206 207  86 87 207  2 3 208  86 208 209  86 87 209  48 49 210  115 210 211  114 115 211  44 45 212  119 212 213  118 119 213  62 63 214  125 214 215  124 125 215  60 61 216  129 216 217  128 129 217  12 13 218  105 218 219  104 105 219  104 105 220  54 220 221  54 55 221  54 55 222  103 222 223  102 103 223  102 103 224  23 224 225  22 23 225  22 23 226  101 226 227  100 101 227  100 101 228  56 228 229  56 57 229  56 57 230  99 230 231  98 99 231  98 99 232  0 232 233  0 1 233  50 51 234  112 234 235  112 113 235  50 51 236  111 236 237  110 111 237  52 53 238  108 238 239  108 109 239  52 53 240  107 240 241  106 107 241  28 29 242  120 242 243  120 121 243  28 29 244  118 244 245  118 119 245  26 27 246  116 246 247  116 117 247  26 27 248  114 248 249  114 115 249  16 17 250  126 250 251  126 127 251  16 17 252  128 252 253  128 129 253  14 15 254  122 254 255  122 123 255  14 15 256  124 256 257  124 125 257  </DataArray>
<DataArray  type="UInt32"  Name="offsets"  format="ascii">3 6 9 12 15 18 21 24 27 30 33 36 39 42 45 48 51 54 57 60 63 66 69 72 75 78 81 84 87 90 93 96 99 102 105 108 111 114 117 120 123 126 129 132 135 138 141 144 147 150 153 156 159 162 165 168 171 174 177 180 183 186 189 192 195 198 201 204 207 210 213 216 219 222 225 228 231 234 237 240 243 246 249 252 255 258 261 264 267 270 273 276 279 282 285 288 291 294 297 300 303 306 309 312 315 318 321 324 327 330 333 336 339 342 345 348 351 354 357 360 363 366 369 372 375 378 381 384 387 390 393 396 399 402 405 408 411 414 417 420 423 426 429 432 435 438 441 444 447 450 453 456 459 462 465 468 471 474 477 480 483 486 489 492 495 498 501 504 507 510 513 516 519 522 525 528 531 534 537 540 543 546 549 552 555 558 561 564 567 570 573 576 579 582 585 588 591 594 597 600 603 606 609 612 615 618 621 624 627 630 633 636 639 642 645 648 651 654 657 660 663 666 669 672 675 678 681 684 687 690 693 696 699 702 705 708 711 714 717 720 723 726 729 732 735 738 741 744 747 750 753 756 759 762 765 768 </DataArray>
<DataArray  type="UInt8"  Name="types"  format="ascii">5 5 5 5 5 5 5 5 5 5 5 5 5 5 5 5 5 5 5 5 5 5 5 5 5 5 5 5 5 5 5 5 5 5 5 5 5 5 5 5 5 5 5 5 5 5 5 5 5 5 5 5 5 5 5 5 5 5 5 5 5 5 5 5 5 5 5 5 5 5 5 5 5 5 5 5 5 5 5 5 5 5 5 5 5 5 5 5 5 5 5 5 5 5 5 5 5 5 5 5 5 5 5 5 5 5 5 5 5 5 5 5 5 5 5 5 5 5 5 5 5 5 5 5 5 5 5 5 5 5 5 5 5 5 5 5 5 5 5 5 5 5 5 5 5 5 5 5 5 5 5 5 5 5 5 5 5 5 5 5 5 5 5 5 5 5 5 5 5 5 5 5 5 5 5 5 5 5 5 5 5 5 5 5 5 5 5 5 5 5 5 5 5 5 5 5 5 5 5 5 5 5 5 5 5 5 5 5 5 5 5 5 5 5 5 5 5 5 5 5 5 5 5 5 5 5 5 5 5 5 5 5 5 5 5 5 5 5 5 5 5 5 5 5 5 5 5 5 5 5 5 5 5 5 5 5 </DataArray>
</Cells>
<PointData  Scalars="f_31-1"> 
<DataArray  type="Float64"  Name="f_31-1"  format="ascii">0.0000000000000000e+00  0.0000000000000000e+00  -1.1984143018732776e-55  7.7056358263726624e-55  -5.3479459712269194e-84  -3.7433027460210806e-82  -6.7672465855246439e-96  5.3477782116667213e-96  -6.3051837960846005e-69  1.2830222707201090e-68  -1.6202634243963876e-89  -3.4168665921075449e-89  1.4513140981590855e-102  -5.7827271503427314e-103  1.4377789852672035e-75  -2.5758817390070250e-75  4.9946823271139127e-62  5.6676593548986092e-62  -4.9704616709168204e-72  4.7619114167041570e-72  -1.0765824605126628e-78  2.9939160163724898e-79  -6.8375229627387257e-107  5.4843379733988476e-106  -2.2582628368292363e-99  3.1837104028881743e-99  -1.6816027976520539e-92  4.0661439839480324e-93  -4.9220295854126045e-86  -1.0270543310296390e-85  3.2264991620381923e-66  2.8715332506853479e-65  2.4423857021507665e-58  4.4698069030354412e-59  -2.5285393662721103e-70  1.9240976170579910e-70  -2.8827547880967452e-81  2.0562964850268945e-80  -6.2220262926152484e-67  1.3080223802123372e-67  5.1289092349535135e-59  -1.4104192479566656e-56  6.4385806665765486e-84  1.3292293168821996e-84  1.4562517433506976e-87  1.3819916835016856e-87  5.8158492196735489e-92  7.8050422851195476e-91  -1.7959043368661293e-94  3.4503347432323526e-94  -1.3645471916961531e-97  1.2680166869645197e-97  -6.9730917764398663e-101  3.7771908148208172e-101  -2.8855468089764771e-104  7.6072010192548286e-105  -9.9247020155841693e-108  -3.2436188646273221e-109  -1.7451555991837203e-60  -3.9331855615558328e-60  -6.5554905227606360e-64  -1.2480317287364704e-63  5.3887991690373646e-77  -2.2266382394376161e-77  -8.5306678609389983e-74  1.1689864392621436e-73  6.5746557025845429e-66  -1.8758372591149360e-66  1.8615985604156758e-68  -1.2588580722733870e-67  -2.3125838577278588e-80  1.0229588224150900e-79  -2.1041457051249817e-81  1.0646582736892572e-81  -3.2084440244464069e-83  4.1368442733966903e-83  2.2979271841060492e-69  1.2121602793872702e-71  -7.7186817925659235e-72  -3.9659527471528814e-71  6.3567871611783471e-73  2.9319102534210558e-73  2.9986873777526917e-59  -2.9175359480574320e-59  1.5453035191150823e-57  -1.1533589808449135e-57  3.7300816620257023e-56  -7.8223324058848447e-56  -8.8441325120216113e-90  3.5890355739159438e-90  -2.3306831483043475e-88  4.2384547336151286e-88  1.4268194990107235e-96  6.0968218497920841e-95  1.3808736345783996e-64  -3.2830045215739498e-64  -4.7345764717747685e-78  -4.4182123271894515e-79  1.0663866533906599e-108  -8.7770247589936038e-109  -5.6569784665134046e-107  3.0264913483710019e-107  2.7639365068412423e-105  -7.1152109359788213e-106  -1.2864625017713503e-103  -7.1965097767114517e-105  5.6517515731728070e-102  2.5399030930848334e-102  -2.2975977475836186e-100  -2.3321038473047357e-100  8.2571506154801338e-99  1.6588526461453716e-98  -2.2833526637916561e-97  -1.0450580280621604e-96  -3.3584201224806977e-93  4.4484617151196271e-94  -4.7744446112723136e-92  1.7626484050914001e-91  -1.9293500898705964e-86  1.3880877133382651e-86  -7.7711338682371672e-85  8.2366066432412683e-85  -8.3096921758545376e-75  -9.0876402853205548e-75  1.0315534549220846e-76  2.0652668980920284e-76  5.2417208154389024e-61  -7.0815394088831696e-61  1.5652363809247630e-62  -8.8674309870885708e-63  1.9708106397993164e-99  -9.8949319103905201e-99  -3.8410367076078496e-100  9.8159035505132326e-100  -3.8707684081547666e-103  -3.2446324368274738e-102  -1.2791977159699514e-77  1.4109264848828802e-77  6.5630671632701257e-79  2.0432750262666742e-78  7.5438491403155162e-64  6.6827066880342284e-65  -8.6339724229568127e-65  7.6972552177599684e-65  -6.4132050332513484e-95  -8.9541078228264287e-95  1.1783928067534786e-95  -2.4966117922889319e-95  5.2718503715445423e-97  2.1157195796109171e-96  -1.1276895121241819e-87  6.9842953985277094e-89  1.2006964640904504e-88  -7.7773547086955991e-89  -3.3096331968542246e-91  -1.1108406791294321e-91  -2.3053638207801599e-90  2.1251845942955332e-90  1.9955107817706213e-89  2.1732821991582969e-90  5.6252430640198947e-57  -2.7859302236188506e-57  -4.6977029878752089e-58  -1.4752445707826929e-58  2.2622913832677670e-60  -5.0066862720626997e-61  1.0486547383020779e-59  -5.0151283441955309e-61  -1.1538149517492964e-58  4.1086210667733591e-59  -3.1011585188818732e-84  1.0594164830741038e-84  -1.2813977153362825e-83  -3.4655602919068660e-84  1.5194078709729133e-82  -7.2886240930039201e-83  5.4003816784639562e-82  4.0333096966673803e-82  -7.0942868049001851e-81  4.5025497552244537e-81  -2.0615109688954775e-80  -3.1069747071444289e-80  3.1289805281766193e-79  -2.5904155121532070e-79  -1.3161890925978393e-74  3.6416750653065681e-74  7.9168713318479374e-74  -3.7002156006560040e-73  1.1231475152344602e-73  -1.7265693369813593e-72  -6.5992770226007255e-72  1.8917252419383197e-71  2.2662577525902623e-71  7.7593773810161430e-71  4.5068298904261396e-70  -9.2456600650007671e-70  -2.5340652483922931e-69  -3.2561675056142930e-69  -2.7716416673764517e-68  4.3049455063050194e-68  1.9292389281937838e-67  1.2344740906896530e-67  1.5894102264790737e-66  -1.8921485923021109e-66  -1.2611400888414159e-65  -3.8728150580609853e-66  1.9627554245484239e-56  1.5906255047192141e-56  -2.6118925580120997e-55  1.7058064145461988e-55  -7.3129499269900555e-94  1.1689054777042521e-93  -5.9792212105098498e-87  2.2505661783501978e-87  -1.2107682658215316e-77  -1.2270516781092953e-76  4.4749769606482021e-63  -2.7694960514584613e-63  -3.5295292022860374e-103  3.7663060599881795e-103  5.3594460838938731e-104  1.8779989645660968e-104  8.5510788854158094e-105  -6.8775266300326710e-105  -8.0477819927698535e-106  -5.7407304820213874e-106  -1.9256617925687512e-106  1.1875088775295823e-106  1.0185992715099585e-107  1.4841063295521886e-107  4.0916814364912699e-108  -1.8936194094396398e-108  -6.0792561850687468e-110  -2.6674321832063183e-109  -1.6997993683837697e-97  5.0831620811470111e-97  4.6317361322012461e-99  -4.6783083389105055e-98  -9.8596063140470422e-102  1.8392085010722869e-100  1.3020931083480262e-101  -1.9663950061258052e-101  2.8422956495162531e-85  -2.3337690362596809e-86  6.0512977055532094e-86  -1.2500699239319497e-86  4.2211919413002326e-92  -5.1731792083507924e-92  5.0015352211457420e-93  3.4409481830119842e-93  -2.2176843939280641e-61  7.6816561917735017e-62  -4.2375495391861379e-62  3.3210684412154485e-63  -4.8523171867753294e-76  6.9132771031358903e-75  4.6425386690707913e-76  -7.3306064466786811e-76  </DataArray> 
</PointData> 
</Piece>
</UnstructuredGrid>
</VTKFile>